/*--------------------------------*- C++ -*----------------------------------*\
  =========                 |
  \\      /  F ield         | OpenFOAM: The Open Source CFD Toolbox
   \\    /   O peration     | Website:  https://openfoam.org
    \\  /    A nd           | Version:  8
     \\/     M anipulation  |
\*---------------------------------------------------------------------------*/
FoamFile
{
    version     2.0;
    format      ascii;
    class       volScalarField;
    location    "2836";
    object      measurements;
}
// * * * * * * * * * * * * * * * * * * * * * * * * * * * * * * * * * * * * * //

dimensions      [0 0 0 0 0 0 0];

internalField   nonuniform List<scalar> 
21600
(
0.706171
0.70616
0.706156
0.706156
0.70616
0.706167
0.706177
0.706188
0.706201
0.706213
0.706225
0.706235
0.706243
0.706247
0.706247
0.706243
0.706233
0.706218
0.706197
0.706169
0.706134
0.706092
0.706043
0.705986
0.705923
0.705852
0.705773
0.705688
0.705597
0.705499
0.705395
0.705286
0.705172
0.705054
0.704933
0.70481
0.704686
0.704561
0.704437
0.704316
0.704199
0.704087
0.703982
0.703887
0.703803
0.703732
0.703677
0.70364
0.703624
0.703631
0.703664
0.703727
0.703822
0.703953
0.704122
0.704333
0.70459
0.704895
0.705251
0.705663
0.706132
0.706661
0.707254
0.707911
0.708635
0.709426
0.710286
0.711213
0.712207
0.713265
0.714385
0.715561
0.716788
0.718059
0.719366
0.720698
0.722045
0.723395
0.724735
0.726051
0.72733
0.728559
0.729725
0.730817
0.731826
0.732742
0.733562
0.734282
0.734902
0.735424
0.735853
0.736195
0.736456
0.736645
0.736769
0.736838
0.736857
0.736833
0.736772
0.736677
0.736553
0.736403
0.736229
0.736033
0.735816
0.73558
0.735325
0.735052
0.734762
0.734456
0.734135
0.733799
0.733449
0.733086
0.732711
0.732324
0.731925
0.731516
0.731096
0.730666
0.730227
0.729779
0.729322
0.728856
0.728382
0.727899
0.727409
0.72691
0.726403
0.725887
0.725364
0.724832
0.724291
0.723741
0.723183
0.722615
0.722038
0.72145
0.720852
0.720242
0.719621
0.718988
0.718341
0.71768
0.717005
0.716313
0.715605
0.714877
0.714131
0.713362
0.712571
0.711755
0.710912
0.710043
0.709144
0.708216
0.707257
0.706268
0.705247
0.704196
0.703114
0.702004
0.700867
0.699705
0.698524
0.697328
0.696124
0.69492
0.693727
0.692557
0.691424
0.690342
0.689328
0.688395
0.687559
0.686833
0.68623
0.685764
0.685451
0.685305
0.706208
0.706198
0.706194
0.706195
0.706199
0.706207
0.706218
0.70623
0.706244
0.706257
0.706269
0.70628
0.706289
0.706294
0.706295
0.706291
0.706282
0.706267
0.706246
0.706218
0.706184
0.706142
0.706093
0.706036
0.705972
0.705901
0.705823
0.705737
0.705645
0.705546
0.705442
0.705332
0.705218
0.705099
0.704977
0.704853
0.704727
0.704602
0.704477
0.704354
0.704235
0.704122
0.704015
0.703918
0.703832
0.703759
0.703702
0.703662
0.703644
0.703649
0.70368
0.70374
0.703832
0.70396
0.704127
0.704336
0.70459
0.704893
0.705247
0.705657
0.706124
0.706653
0.707245
0.707902
0.708626
0.709419
0.710281
0.711211
0.712209
0.713273
0.714399
0.715582
0.716818
0.718099
0.719417
0.720761
0.722121
0.723483
0.724836
0.726165
0.727456
0.728696
0.729872
0.730971
0.731985
0.732905
0.733724
0.734443
0.735058
0.735574
0.735995
0.736328
0.736581
0.736762
0.73688
0.736942
0.736955
0.736926
0.73686
0.736763
0.736636
0.736484
0.736309
0.736112
0.735895
0.735659
0.735405
0.735134
0.734846
0.734544
0.734227
0.733896
0.733552
0.733196
0.732828
0.73245
0.732061
0.731662
0.731254
0.730837
0.730411
0.729977
0.729535
0.729085
0.728628
0.728163
0.727691
0.727211
0.726723
0.726229
0.725726
0.725216
0.724698
0.724172
0.723638
0.723095
0.722543
0.721981
0.72141
0.720828
0.720234
0.71963
0.719012
0.718381
0.717736
0.717075
0.716397
0.715701
0.714985
0.714248
0.713486
0.712697
0.711879
0.711031
0.71015
0.709235
0.708284
0.707297
0.706272
0.705208
0.704106
0.702966
0.70179
0.70058
0.699342
0.698079
0.696802
0.695518
0.694242
0.692987
0.69177
0.690611
0.689525
0.688531
0.687642
0.686871
0.68623
0.685731
0.685392
0.685233
0.706299
0.70629
0.706286
0.706288
0.706294
0.706303
0.706315
0.706329
0.706344
0.706359
0.706373
0.706386
0.706396
0.706402
0.706405
0.706402
0.706394
0.70638
0.70636
0.706332
0.706298
0.706256
0.706207
0.70615
0.706086
0.706014
0.705935
0.705849
0.705756
0.705656
0.70555
0.705439
0.705323
0.705202
0.705079
0.704952
0.704824
0.704696
0.704568
0.704443
0.704321
0.704205
0.704095
0.703994
0.703904
0.703828
0.703766
0.703723
0.7037
0.7037
0.703727
0.703782
0.703871
0.703994
0.704157
0.704362
0.704612
0.704912
0.705264
0.705671
0.706138
0.706666
0.707259
0.707918
0.708646
0.709444
0.710312
0.711252
0.712261
0.713337
0.714478
0.715679
0.716934
0.718237
0.719577
0.720945
0.72233
0.723718
0.725095
0.726446
0.727758
0.729016
0.730206
0.731315
0.732333
0.733254
0.734068
0.734775
0.735377
0.735878
0.736284
0.736602
0.73684
0.737009
0.737115
0.737168
0.737175
0.737141
0.737073
0.736975
0.736851
0.736703
0.736533
0.736344
0.736136
0.735911
0.735671
0.735416
0.735146
0.734864
0.73457
0.734264
0.733948
0.733622
0.733288
0.732944
0.732593
0.732234
0.731868
0.731496
0.731117
0.730732
0.730341
0.729944
0.729541
0.729132
0.728718
0.728299
0.727873
0.727442
0.727005
0.726562
0.726113
0.725657
0.725195
0.724726
0.724249
0.723764
0.72327
0.722768
0.722255
0.721732
0.721198
0.720651
0.72009
0.719514
0.718922
0.718312
0.717677
0.717011
0.716312
0.715578
0.714806
0.713992
0.713134
0.712226
0.711267
0.710254
0.709183
0.708052
0.706862
0.705611
0.704302
0.702936
0.701521
0.700063
0.698573
0.697068
0.695563
0.694081
0.692646
0.691287
0.690021
0.688882
0.687871
0.687003
0.68628
0.685707
0.68531
0.685119
0.706442
0.706433
0.706431
0.706434
0.706441
0.706453
0.706467
0.706484
0.706502
0.706519
0.706536
0.706551
0.706563
0.706572
0.706576
0.706575
0.706569
0.706556
0.706537
0.70651
0.706476
0.706434
0.706385
0.706328
0.706263
0.70619
0.706109
0.706021
0.705927
0.705825
0.705717
0.705603
0.705485
0.705361
0.705234
0.705105
0.704973
0.704841
0.70471
0.70458
0.704454
0.704333
0.704219
0.704113
0.704018
0.703935
0.703869
0.703819
0.703791
0.703785
0.703806
0.703856
0.703938
0.704057
0.704214
0.704415
0.704661
0.704958
0.705308
0.705715
0.706182
0.706712
0.707309
0.707974
0.70871
0.709519
0.710401
0.711356
0.712384
0.713483
0.714649
0.715878
0.717165
0.7185
0.719875
0.721279
0.722699
0.724121
0.725531
0.726913
0.72825
0.729528
0.730731
0.731849
0.732864
0.733772
0.73457
0.735258
0.735838
0.736317
0.736701
0.737
0.737221
0.737376
0.737473
0.737521
0.737526
0.737496
0.737435
0.737349
0.737239
0.737109
0.736962
0.736798
0.73662
0.736429
0.736226
0.736013
0.735789
0.735557
0.735316
0.735069
0.734815
0.734556
0.734291
0.734022
0.733749
0.733471
0.73319
0.732906
0.732618
0.732327
0.732033
0.731737
0.731437
0.731134
0.730828
0.730519
0.730206
0.72989
0.729571
0.729248
0.728921
0.728589
0.728253
0.727911
0.727564
0.727211
0.726851
0.726483
0.726107
0.72572
0.725323
0.724913
0.724489
0.724052
0.723584
0.723078
0.722533
0.721946
0.721313
0.720629
0.719889
0.719086
0.718216
0.717273
0.716251
0.715147
0.713954
0.712671
0.711295
0.709827
0.708267
0.706621
0.704896
0.703103
0.70126
0.699388
0.697512
0.69567
0.693889
0.692227
0.690684
0.689346
0.688188
0.687195
0.686356
0.685675
0.685186
0.684941
0.706636
0.706628
0.706627
0.706632
0.706642
0.706657
0.706675
0.706695
0.706716
0.706737
0.706758
0.706776
0.706791
0.706803
0.706809
0.706811
0.706806
0.706795
0.706776
0.70675
0.706717
0.706675
0.706625
0.706567
0.706501
0.706426
0.706344
0.706254
0.706156
0.706051
0.70594
0.705823
0.705701
0.705574
0.705442
0.705308
0.705172
0.705035
0.704899
0.704764
0.704632
0.704505
0.704384
0.704272
0.70417
0.704081
0.704007
0.703951
0.703916
0.703903
0.703917
0.703961
0.704037
0.704149
0.704302
0.704498
0.704742
0.705036
0.705386
0.705794
0.706264
0.7068
0.707404
0.708081
0.708831
0.709657
0.71056
0.71154
0.712597
0.713728
0.714931
0.716199
0.717528
0.718907
0.720328
0.721777
0.723242
0.724707
0.726154
0.727569
0.728931
0.730229
0.731435
0.732544
0.733544
0.734431
0.735204
0.735865
0.736417
0.73687
0.737231
0.73751
0.737718
0.737865
0.737961
0.738014
0.738031
0.738018
0.737981
0.737924
0.73785
0.737761
0.73766
0.737549
0.737429
0.737302
0.737168
0.73703
0.736887
0.736742
0.736594
0.736444
0.736294
0.736142
0.735991
0.73584
0.735689
0.735538
0.735388
0.735238
0.735088
0.734939
0.73479
0.73464
0.734491
0.734341
0.734191
0.73404
0.733888
0.733735
0.733579
0.733423
0.733263
0.733101
0.732935
0.732766
0.732591
0.732411
0.732224
0.73203
0.731825
0.73161
0.731381
0.731139
0.73086
0.730531
0.730157
0.729733
0.729256
0.728719
0.728115
0.727437
0.726677
0.725828
0.724883
0.723833
0.722671
0.721391
0.719987
0.718456
0.716794
0.715001
0.713082
0.711042
0.708893
0.706651
0.704335
0.701986
0.699627
0.697331
0.695103
0.693099
0.691304
0.689746
0.688424
0.68731
0.686356
0.685564
0.684976
0.684664
0.706881
0.706874
0.706875
0.706883
0.706896
0.706914
0.706936
0.706961
0.706986
0.707012
0.707037
0.707059
0.707078
0.707093
0.707103
0.707107
0.707105
0.707095
0.707078
0.707053
0.707019
0.706977
0.706926
0.706866
0.706798
0.706721
0.706636
0.706543
0.706442
0.706334
0.706218
0.706097
0.705969
0.705837
0.7057
0.705561
0.705419
0.705275
0.705132
0.70499
0.704851
0.704717
0.704589
0.704469
0.70436
0.704263
0.704182
0.704117
0.704074
0.704054
0.70406
0.704097
0.704166
0.704273
0.704421
0.704614
0.704855
0.705149
0.705501
0.705913
0.70639
0.706936
0.707554
0.708247
0.709018
0.709869
0.710802
0.711817
0.712912
0.714087
0.715336
0.716655
0.718036
0.71947
0.720945
0.722448
0.723963
0.725473
0.72696
0.728407
0.729786
0.731082
0.73228
0.73337
0.734345
0.735203
0.735944
0.736572
0.737095
0.737521
0.737862
0.738129
0.738333
0.738484
0.738593
0.738668
0.738715
0.738741
0.738751
0.738748
0.738735
0.738715
0.73869
0.738662
0.738633
0.738603
0.738575
0.738548
0.738525
0.738504
0.738488
0.738477
0.73847
0.738468
0.738471
0.738478
0.738491
0.738508
0.738529
0.738553
0.738582
0.738613
0.738647
0.738683
0.73872
0.73876
0.7388
0.73884
0.73888
0.73892
0.738958
0.738995
0.739029
0.73906
0.739086
0.739107
0.739122
0.739128
0.739124
0.739108
0.739078
0.739031
0.738938
0.738785
0.73858
0.738319
0.737997
0.737608
0.737145
0.7366
0.735964
0.735227
0.73438
0.733414
0.732319
0.731084
0.729703
0.728165
0.726466
0.724599
0.722563
0.720358
0.717988
0.715464
0.712799
0.710022
0.707137
0.704239
0.701304
0.69855
0.695953
0.693578
0.691475
0.68969
0.688235
0.687063
0.686054
0.685218
0.684581
0.684218
0.707177
0.707171
0.707174
0.707184
0.707202
0.707224
0.707251
0.707281
0.707312
0.707343
0.707372
0.7074
0.707424
0.707443
0.707456
0.707463
0.707463
0.707455
0.707439
0.707415
0.707381
0.707338
0.707286
0.707224
0.707154
0.707074
0.706985
0.706888
0.706782
0.706669
0.706548
0.706421
0.706288
0.706149
0.706006
0.705859
0.70571
0.705559
0.705408
0.705258
0.705111
0.704968
0.704832
0.704703
0.704585
0.704479
0.704389
0.704316
0.704264
0.704235
0.704234
0.704263
0.704327
0.704429
0.704572
0.704763
0.705004
0.7053
0.705656
0.706076
0.706564
0.707124
0.707761
0.708478
0.709278
0.710163
0.711135
0.712193
0.713337
0.714565
0.715871
0.71725
0.718693
0.72019
0.721727
0.723288
0.724857
0.726414
0.727935
0.729394
0.730773
0.732058
0.733236
0.734298
0.73524
0.736061
0.736766
0.737361
0.737857
0.738264
0.738595
0.738862
0.739077
0.739251
0.739393
0.739511
0.739612
0.739701
0.739783
0.739861
0.739938
0.740017
0.7401
0.740187
0.740282
0.740383
0.740494
0.740614
0.740744
0.740884
0.741034
0.741195
0.741366
0.741546
0.741735
0.741933
0.74214
0.742353
0.742573
0.742799
0.74303
0.743264
0.743503
0.743743
0.743986
0.744229
0.744473
0.744715
0.744957
0.745195
0.74543
0.745661
0.745886
0.746103
0.746312
0.746511
0.746696
0.746867
0.74702
0.747152
0.747228
0.747235
0.747184
0.747072
0.746895
0.746647
0.746321
0.745908
0.745398
0.744783
0.744052
0.743193
0.742195
0.741046
0.739735
0.738251
0.736583
0.734721
0.732658
0.730387
0.727906
0.725216
0.722326
0.719243
0.715987
0.712617
0.709065
0.705632
0.702259
0.699011
0.695945
0.693141
0.690685
0.688662
0.687118
0.685982
0.685066
0.684351
0.683816
0.683487
0.70752
0.707516
0.707522
0.707536
0.707558
0.707586
0.707618
0.707654
0.707691
0.707728
0.707764
0.707797
0.707825
0.707849
0.707867
0.707877
0.70788
0.707874
0.707859
0.707834
0.7078
0.707756
0.707702
0.707638
0.707564
0.70748
0.707387
0.707285
0.707174
0.707055
0.706928
0.706793
0.706653
0.706506
0.706355
0.7062
0.706042
0.705883
0.705723
0.705564
0.705407
0.705255
0.705109
0.704971
0.704843
0.704727
0.704627
0.704545
0.704484
0.704447
0.704437
0.70446
0.704517
0.704615
0.704756
0.704945
0.705188
0.705489
0.705853
0.706284
0.706788
0.707369
0.708032
0.708779
0.709615
0.710543
0.711562
0.712674
0.713877
0.715167
0.71654
0.717988
0.719501
0.721066
0.722669
0.72429
0.725913
0.7275
0.729034
0.730494
0.731862
0.733125
0.734272
0.735298
0.736201
0.736984
0.737654
0.738222
0.7387
0.7391
0.739437
0.739722
0.739968
0.740186
0.740384
0.74057
0.74075
0.740928
0.741109
0.741296
0.741492
0.741698
0.741916
0.742149
0.742396
0.742658
0.742937
0.743231
0.743542
0.743868
0.744209
0.744565
0.744935
0.745318
0.745712
0.746117
0.746531
0.746952
0.747381
0.747815
0.748252
0.748693
0.749135
0.749577
0.750018
0.750457
0.750892
0.751322
0.751746
0.752163
0.75257
0.752966
0.753351
0.75372
0.754073
0.754406
0.754717
0.755001
0.755224
0.75537
0.755453
0.755472
0.755425
0.755305
0.755107
0.754821
0.754439
0.753951
0.753346
0.752612
0.751738
0.750709
0.749513
0.748135
0.746562
0.744781
0.742779
0.740544
0.738068
0.735342
0.732361
0.729131
0.725663
0.721961
0.718034
0.71405
0.710044
0.706053
0.702112
0.698288
0.694664
0.691344
0.688453
0.686126
0.684481
0.683488
0.682852
0.682515
0.682368
0.68228
0.707911
0.707908
0.707917
0.707936
0.707963
0.707997
0.708036
0.708078
0.708122
0.708166
0.708209
0.708248
0.708282
0.708311
0.708333
0.708347
0.708352
0.708348
0.708334
0.708309
0.708274
0.708228
0.708172
0.708105
0.708027
0.707938
0.70784
0.707731
0.707614
0.707487
0.707352
0.70721
0.707061
0.706906
0.706745
0.706581
0.706413
0.706244
0.706074
0.705904
0.705737
0.705574
0.705417
0.705269
0.70513
0.705004
0.704894
0.704802
0.704731
0.704685
0.704668
0.704684
0.704736
0.70483
0.70497
0.705161
0.705408
0.705717
0.706092
0.706539
0.707064
0.707671
0.708366
0.709152
0.710033
0.71101
0.712086
0.713261
0.714531
0.715893
0.71734
0.718864
0.720453
0.722092
0.723762
0.725437
0.727087
0.728691
0.730227
0.731677
0.733023
0.734254
0.735363
0.736348
0.737211
0.737959
0.738603
0.739155
0.739629
0.74004
0.740401
0.740726
0.741026
0.741311
0.741589
0.741866
0.742149
0.742441
0.742747
0.743067
0.743406
0.743764
0.744142
0.744542
0.744964
0.745407
0.745872
0.746359
0.746865
0.747391
0.747935
0.748495
0.74907
0.749658
0.750257
0.750866
0.751482
0.752104
0.75273
0.753357
0.753985
0.75461
0.755232
0.755849
0.75646
0.757061
0.757653
0.758232
0.758798
0.759349
0.759882
0.760395
0.760887
0.761353
0.761792
0.762203
0.762548
0.762811
0.76301
0.763142
0.763209
0.763205
0.763125
0.762961
0.762705
0.762347
0.761877
0.761283
0.760552
0.759671
0.758626
0.757401
0.75598
0.754347
0.752486
0.750379
0.748013
0.745373
0.742448
0.73923
0.735707
0.731883
0.72779
0.723423
0.718998
0.714473
0.709872
0.70524
0.700637
0.696143
0.691855
0.687898
0.684426
0.681631
0.679736
0.678898
0.678699
0.679046
0.679711
0.680264
0.708348
0.708347
0.708359
0.708383
0.708416
0.708457
0.708503
0.708553
0.708604
0.708656
0.708705
0.708751
0.708791
0.708825
0.708851
0.708869
0.708876
0.708874
0.70886
0.708836
0.708799
0.708751
0.708692
0.70862
0.708537
0.708443
0.708338
0.708223
0.708097
0.707963
0.707819
0.707668
0.707509
0.707344
0.707173
0.706998
0.706819
0.706639
0.706457
0.706276
0.706098
0.705923
0.705755
0.705594
0.705444
0.705307
0.705186
0.705084
0.705004
0.704949
0.704925
0.704934
0.704982
0.705074
0.705214
0.705409
0.705663
0.705982
0.706373
0.706841
0.707392
0.708032
0.708766
0.709597
0.71053
0.711567
0.712708
0.713953
0.715299
0.71674
0.718269
0.719874
0.721541
0.723255
0.724976
0.726683
0.728352
0.72996
0.731487
0.732914
0.734228
0.735421
0.736488
0.737433
0.738261
0.738983
0.739613
0.740164
0.740653
0.741095
0.741503
0.74189
0.742266
0.74264
0.743021
0.743412
0.74382
0.744247
0.744696
0.74517
0.74567
0.746197
0.746751
0.747332
0.74794
0.748574
0.749233
0.749915
0.750619
0.751343
0.752084
0.75284
0.753608
0.754387
0.755173
0.755965
0.756759
0.757552
0.758344
0.75913
0.75991
0.760681
0.76144
0.762187
0.762918
0.763633
0.764329
0.765005
0.765658
0.766286
0.766887
0.767459
0.767999
0.768506
0.768953
0.769313
0.769608
0.769839
0.770006
0.770107
0.770136
0.770088
0.769955
0.769729
0.769399
0.768954
0.768383
0.767672
0.766806
0.765769
0.764545
0.763115
0.76146
0.759561
0.757398
0.754951
0.752201
0.749132
0.745733
0.741992
0.737889
0.73342
0.728767
0.723933
0.718924
0.713757
0.70847
0.703115
0.697762
0.692495
0.687423
0.682679
0.678434
0.674913
0.67242
0.671345
0.671659
0.67295
0.674938
0.676763
0.708828
0.708829
0.708846
0.708874
0.708914
0.708962
0.709016
0.709074
0.709134
0.709193
0.70925
0.709303
0.709349
0.709389
0.709419
0.70944
0.70945
0.709449
0.709435
0.70941
0.709372
0.70932
0.709257
0.70918
0.709092
0.708991
0.708878
0.708755
0.708621
0.708477
0.708323
0.708161
0.707992
0.707815
0.707633
0.707446
0.707256
0.707063
0.706869
0.706676
0.706485
0.706298
0.706117
0.705944
0.705782
0.705633
0.705501
0.705388
0.705299
0.705236
0.705204
0.705208
0.705253
0.705344
0.705487
0.705687
0.705951
0.706285
0.706696
0.70719
0.707773
0.708451
0.70923
0.710114
0.711107
0.71221
0.713425
0.714748
0.716178
0.717705
0.71932
0.72101
0.722753
0.724516
0.726274
0.728003
0.729679
0.73128
0.732786
0.734181
0.735457
0.736608
0.737635
0.738546
0.739349
0.740058
0.74069
0.741261
0.741785
0.742278
0.742754
0.743224
0.743697
0.744181
0.744682
0.745206
0.745755
0.746332
0.74694
0.74758
0.748251
0.748955
0.74969
0.750455
0.75125
0.752071
0.752917
0.753785
0.754673
0.755577
0.756494
0.757421
0.758355
0.759293
0.76023
0.761165
0.762095
0.763016
0.763925
0.764821
0.765702
0.766564
0.767405
0.768225
0.769021
0.769791
0.770534
0.771247
0.771929
0.772579
0.773193
0.773769
0.774295
0.77474
0.775116
0.77543
0.775685
0.77588
0.77601
0.776071
0.776058
0.775962
0.775774
0.775484
0.775082
0.774554
0.773885
0.773062
0.772065
0.770877
0.769478
0.767845
0.765957
0.763791
0.761321
0.758524
0.755376
0.751857
0.747957
0.743666
0.738946
0.734038
0.728872
0.723445
0.717776
0.711896
0.705851
0.699697
0.693507
0.687369
0.681391
0.675706
0.670482
0.665938
0.662385
0.660305
0.660715
0.662774
0.666284
0.67007
0.70935
0.709353
0.709374
0.709409
0.709455
0.709511
0.709574
0.70964
0.709709
0.709776
0.709841
0.7099
0.709953
0.709998
0.710033
0.710057
0.710069
0.710068
0.710054
0.710027
0.709986
0.709931
0.709863
0.709781
0.709685
0.709577
0.709456
0.709323
0.709179
0.709025
0.70886
0.708687
0.708505
0.708317
0.708122
0.707922
0.707719
0.707512
0.707305
0.707099
0.706894
0.706694
0.7065
0.706314
0.70614
0.705979
0.705835
0.705712
0.705613
0.705542
0.705504
0.705504
0.705546
0.705638
0.705785
0.705994
0.706271
0.706624
0.707059
0.707583
0.708204
0.708927
0.709758
0.710702
0.711762
0.71294
0.714234
0.715644
0.717162
0.71878
0.720486
0.722251
0.724048
0.72585
0.727634
0.729373
0.731044
0.732626
0.734102
0.73546
0.736695
0.737806
0.7388
0.739686
0.740478
0.741192
0.741845
0.742453
0.743033
0.743598
0.744161
0.744732
0.745319
0.745928
0.746565
0.747233
0.747934
0.748671
0.749444
0.750252
0.751096
0.751975
0.752885
0.753826
0.754794
0.755786
0.756799
0.757829
0.758872
0.759925
0.760982
0.762041
0.763098
0.764148
0.765188
0.766216
0.767227
0.76822
0.769191
0.770139
0.771061
0.771956
0.772822
0.773657
0.774461
0.775231
0.775966
0.776666
0.777327
0.77795
0.778532
0.779046
0.779488
0.779871
0.780201
0.780477
0.780699
0.780861
0.78096
0.78099
0.780941
0.780806
0.780575
0.780235
0.779774
0.779177
0.778426
0.777504
0.776391
0.775064
0.7735
0.771672
0.769556
0.767121
0.764341
0.761185
0.757621
0.753628
0.749195
0.744382
0.739273
0.73384
0.728072
0.721981
0.715591
0.708938
0.702071
0.695049
0.687945
0.680846
0.673854
0.667092
0.660709
0.654893
0.649887
0.64605
0.644162
0.645889
0.649698
0.654691
0.70991
0.709916
0.709941
0.709982
0.710037
0.710101
0.710172
0.710248
0.710325
0.710401
0.710474
0.71054
0.710599
0.710649
0.710688
0.710714
0.710728
0.710727
0.710712
0.710683
0.710638
0.710579
0.710504
0.710415
0.710312
0.710195
0.710065
0.709922
0.709767
0.709601
0.709425
0.709239
0.709044
0.708842
0.708634
0.708421
0.708203
0.707983
0.707762
0.707541
0.707322
0.707108
0.7069
0.706701
0.706514
0.706341
0.706186
0.706052
0.705943
0.705865
0.705821
0.705817
0.705859
0.705954
0.706108
0.706328
0.706622
0.706996
0.70746
0.70802
0.708684
0.709458
0.710348
0.711358
0.712493
0.713751
0.715133
0.716634
0.718247
0.71996
0.72174
0.723562
0.725403
0.727235
0.729033
0.73077
0.732425
0.733979
0.735419
0.736738
0.737934
0.739012
0.739982
0.740857
0.741655
0.742391
0.743084
0.743749
0.744403
0.745058
0.745724
0.74641
0.747123
0.747868
0.748648
0.749466
0.750323
0.75122
0.752155
0.753127
0.754135
0.755176
0.756246
0.757341
0.758459
0.759593
0.76074
0.761896
0.763054
0.764211
0.765362
0.766503
0.767629
0.768737
0.769824
0.770886
0.771921
0.772927
0.773902
0.774843
0.775751
0.776624
0.777461
0.778261
0.779024
0.77975
0.780438
0.781087
0.781696
0.782258
0.782748
0.783186
0.783575
0.783919
0.784219
0.784471
0.784673
0.784818
0.784901
0.784915
0.78485
0.784695
0.78444
0.784071
0.783571
0.782925
0.782111
0.78111
0.779896
0.778444
0.776725
0.774709
0.772365
0.769661
0.766562
0.763033
0.759032
0.754533
0.749686
0.744466
0.738848
0.732823
0.726397
0.719589
0.712426
0.704948
0.697205
0.689256
0.681173
0.673038
0.664944
0.657002
0.649334
0.642086
0.635425
0.62955
0.624723
0.621373
0.62125
0.62512
0.710507
0.710516
0.710546
0.710593
0.710656
0.710729
0.710809
0.710894
0.71098
0.711065
0.711145
0.711219
0.711283
0.711337
0.711379
0.711408
0.711422
0.711421
0.711404
0.711371
0.711322
0.711257
0.711176
0.711079
0.710967
0.71084
0.710699
0.710545
0.710379
0.7102
0.710011
0.709812
0.709604
0.709388
0.709165
0.708937
0.708705
0.70847
0.708234
0.707998
0.707765
0.707536
0.707314
0.707101
0.706901
0.706715
0.706548
0.706404
0.706286
0.706201
0.706152
0.706146
0.706189
0.706289
0.706452
0.706686
0.707
0.707401
0.707898
0.708498
0.709211
0.710042
0.710997
0.712081
0.713296
0.714643
0.716118
0.717715
0.719425
0.721212
0.723054
0.724925
0.726799
0.72865
0.730449
0.732174
0.733804
0.735325
0.736727
0.738008
0.739171
0.740226
0.741186
0.742066
0.742886
0.743662
0.744412
0.745152
0.745895
0.746652
0.747432
0.748243
0.749089
0.749974
0.7509
0.751867
0.752876
0.753925
0.755012
0.756133
0.757286
0.758466
0.759669
0.760889
0.762121
0.763359
0.764598
0.765833
0.767058
0.768268
0.769459
0.770626
0.771765
0.772874
0.773949
0.774989
0.775991
0.776955
0.77788
0.778765
0.779611
0.780417
0.781184
0.781913
0.782603
0.783256
0.783871
0.78445
0.784977
0.785451
0.785882
0.786277
0.786638
0.786964
0.787252
0.7875
0.787701
0.787849
0.787938
0.787958
0.787899
0.787749
0.787493
0.787117
0.786601
0.785927
0.785071
0.784007
0.782708
0.781142
0.779275
0.777073
0.774499
0.771514
0.768081
0.764161
0.759692
0.754868
0.749609
0.743888
0.737693
0.731025
0.723895
0.716325
0.708346
0.699999
0.691334
0.682411
0.673298
0.664072
0.654818
0.645629
0.636605
0.627852
0.619478
0.611586
0.604259
0.597551
0.591507
0.586259
0.711137
0.711148
0.711184
0.711238
0.711309
0.711391
0.71148
0.711575
0.71167
0.711763
0.71185
0.71193
0.712
0.712058
0.712103
0.712133
0.712146
0.712144
0.712124
0.712087
0.712032
0.71196
0.711871
0.711765
0.711643
0.711506
0.711354
0.711188
0.711008
0.710816
0.710613
0.7104
0.710177
0.709947
0.709709
0.709466
0.709218
0.708968
0.708716
0.708465
0.708217
0.707973
0.707737
0.70751
0.707296
0.707098
0.70692
0.706765
0.706639
0.706547
0.706494
0.706488
0.706534
0.70664
0.706815
0.707066
0.707404
0.707835
0.70837
0.709017
0.709784
0.710678
0.711704
0.712868
0.71417
0.715609
0.717182
0.718879
0.720665
0.722517
0.724411
0.726321
0.728218
0.730074
0.731865
0.733569
0.735169
0.736654
0.738019
0.739268
0.740409
0.741453
0.742416
0.743318
0.744176
0.745008
0.745831
0.746657
0.7475
0.748369
0.749271
0.75021
0.751191
0.752214
0.75328
0.754389
0.755538
0.756724
0.757943
0.759191
0.760461
0.76175
0.76305
0.764355
0.76566
0.766956
0.768239
0.769502
0.770741
0.771949
0.773124
0.774262
0.775359
0.776414
0.777426
0.778392
0.779314
0.780192
0.781026
0.781817
0.782567
0.783277
0.78395
0.784586
0.785187
0.785755
0.786291
0.786782
0.787237
0.787663
0.788064
0.788443
0.788798
0.789127
0.789425
0.78969
0.789913
0.790088
0.790206
0.790257
0.790227
0.790104
0.789872
0.789511
0.789001
0.788318
0.787435
0.786323
0.784948
0.783275
0.781262
0.77887
0.776054
0.772772
0.768979
0.764661
0.759914
0.754685
0.748941
0.742663
0.735845
0.728492
0.720619
0.712249
0.703416
0.694163
0.684541
0.674609
0.664432
0.654083
0.643638
0.633175
0.622775
0.612512
0.602455
0.592651
0.583111
0.573796
0.564642
0.555752
0.711797
0.711811
0.711852
0.711914
0.711993
0.712084
0.712183
0.712286
0.71239
0.712491
0.712585
0.712671
0.712745
0.712806
0.712853
0.712883
0.712895
0.71289
0.712866
0.712823
0.712762
0.712682
0.712584
0.712468
0.712336
0.712187
0.712022
0.711843
0.71165
0.711444
0.711226
0.710998
0.71076
0.710514
0.710261
0.710002
0.709738
0.709472
0.709205
0.708938
0.708675
0.708416
0.708165
0.707924
0.707697
0.707486
0.707297
0.707133
0.706999
0.706901
0.706846
0.70684
0.70689
0.707006
0.707195
0.707467
0.707832
0.708298
0.708875
0.709573
0.7104
0.711363
0.712467
0.713716
0.71511
0.716647
0.718321
0.720096
0.72195
0.723859
0.725796
0.727733
0.729641
0.731494
0.733268
0.734944
0.73651
0.737961
0.739295
0.740521
0.741649
0.742696
0.743679
0.744616
0.745528
0.746429
0.747335
0.748258
0.749208
0.750193
0.751217
0.752283
0.753394
0.754548
0.755744
0.756979
0.758249
0.759549
0.760875
0.762218
0.763573
0.764933
0.766289
0.767636
0.768965
0.770271
0.771546
0.772786
0.773986
0.775141
0.776249
0.777307
0.778314
0.77927
0.780174
0.781029
0.781835
0.782595
0.78331
0.783985
0.784621
0.785222
0.785791
0.78633
0.786842
0.787329
0.787784
0.788217
0.788636
0.789043
0.789439
0.789824
0.790195
0.790549
0.79088
0.791184
0.791452
0.791677
0.791847
0.79195
0.791973
0.791899
0.79171
0.791384
0.790896
0.790219
0.789322
0.78817
0.786725
0.784943
0.78278
0.780184
0.777109
0.773505
0.769389
0.764793
0.759668
0.753978
0.7477
0.740822
0.733343
0.725268
0.716617
0.707415
0.697699
0.687513
0.67691
0.665949
0.654693
0.643211
0.63157
0.61984
0.608084
0.596358
0.584704
0.57314
0.561648
0.550169
0.538664
0.527384
0.712484
0.712501
0.712548
0.712617
0.712704
0.712804
0.712912
0.713024
0.713136
0.713244
0.713345
0.713436
0.713514
0.713577
0.713623
0.713652
0.713662
0.713653
0.713623
0.713574
0.713505
0.713416
0.713308
0.713181
0.713037
0.712875
0.712697
0.712504
0.712297
0.712076
0.711844
0.7116
0.711347
0.711085
0.710815
0.71054
0.710261
0.709978
0.709695
0.709413
0.709134
0.70886
0.708594
0.70834
0.708099
0.707876
0.707676
0.707503
0.707362
0.70726
0.707203
0.7072
0.707257
0.707384
0.707591
0.707887
0.708282
0.708787
0.709412
0.710167
0.711059
0.712096
0.713282
0.714622
0.716113
0.717752
0.719505
0.721351
0.723266
0.725222
0.727192
0.729145
0.731054
0.732895
0.734645
0.736292
0.737825
0.739245
0.740555
0.741767
0.742896
0.743959
0.744975
0.745962
0.746938
0.747918
0.748916
0.74994
0.751
0.7521
0.753242
0.754429
0.75566
0.756931
0.758239
0.75958
0.760947
0.762334
0.763734
0.765138
0.766538
0.767927
0.769296
0.770638
0.771945
0.773211
0.77443
0.775598
0.776711
0.777767
0.778764
0.779702
0.780582
0.781405
0.782173
0.78289
0.78356
0.784185
0.784771
0.785321
0.78584
0.786333
0.786802
0.787252
0.787685
0.788103
0.788513
0.788922
0.789331
0.789743
0.790156
0.790568
0.790975
0.791374
0.791759
0.792123
0.792457
0.792751
0.792993
0.793169
0.793263
0.793256
0.793127
0.79285
0.792398
0.791737
0.790832
0.789643
0.788125
0.786229
0.783901
0.781083
0.777722
0.773859
0.769475
0.764522
0.758961
0.752764
0.745913
0.7384
0.730223
0.721396
0.711937
0.701878
0.691257
0.680123
0.668528
0.656533
0.6442
0.631595
0.61878
0.605817
0.59276
0.579653
0.566522
0.553375
0.540187
0.526905
0.513529
0.500507
0.713194
0.713215
0.713267
0.713343
0.713438
0.713547
0.713664
0.713784
0.713904
0.714019
0.714125
0.714219
0.714299
0.714363
0.714409
0.714436
0.714442
0.714427
0.714391
0.714333
0.714255
0.714156
0.714037
0.713898
0.713741
0.713565
0.713374
0.713166
0.712944
0.712708
0.71246
0.7122
0.711931
0.711653
0.711367
0.711076
0.71078
0.710482
0.710182
0.709884
0.70959
0.709301
0.709021
0.708752
0.708499
0.708265
0.708054
0.707873
0.707726
0.707621
0.707565
0.707565
0.707632
0.707773
0.708001
0.708324
0.708754
0.709303
0.70998
0.710795
0.711757
0.712874
0.714148
0.715583
0.717175
0.718896
0.720723
0.722633
0.7246
0.726594
0.728585
0.730545
0.732447
0.734268
0.735992
0.737607
0.739111
0.740506
0.741802
0.743012
0.744153
0.745245
0.746305
0.747352
0.748402
0.749467
0.750559
0.751687
0.752854
0.754063
0.755317
0.756613
0.757948
0.759317
0.760716
0.762137
0.763572
0.765014
0.766452
0.767879
0.769284
0.770659
0.771997
0.773289
0.774528
0.77571
0.77683
0.777884
0.778872
0.779792
0.780646
0.781436
0.782163
0.782833
0.78345
0.784019
0.784544
0.785033
0.78549
0.785921
0.786331
0.786726
0.78711
0.787488
0.787865
0.788248
0.788642
0.78905
0.789472
0.789907
0.790355
0.790812
0.791275
0.791737
0.792193
0.792634
0.79305
0.793431
0.793762
0.794027
0.794207
0.794281
0.794225
0.794008
0.793598
0.792958
0.792046
0.790816
0.789217
0.787193
0.784681
0.781612
0.778047
0.773929
0.76921
0.763848
0.757808
0.751067
0.743607
0.735424
0.726521
0.716913
0.706625
0.695691
0.684155
0.672066
0.659482
0.646463
0.633072
0.619374
0.605428
0.591292
0.577014
0.562632
0.548169
0.533628
0.518991
0.504224
0.489371
0.475085
0.713925
0.713948
0.714006
0.714089
0.714192
0.714309
0.714435
0.714563
0.714689
0.714809
0.71492
0.715017
0.715098
0.715161
0.715205
0.715227
0.715228
0.715206
0.715162
0.715095
0.715006
0.714895
0.714764
0.714612
0.714441
0.714252
0.714045
0.713822
0.713584
0.713333
0.713069
0.712793
0.712507
0.712213
0.711911
0.711603
0.711292
0.710977
0.710662
0.710348
0.710039
0.709735
0.709441
0.709159
0.708894
0.708649
0.708429
0.70824
0.708089
0.707982
0.707928
0.707935
0.708013
0.708172
0.708422