/*--------------------------------*- C++ -*----------------------------------*\
  =========                 |
  \\      /  F ield         | OpenFOAM: The Open Source CFD Toolbox
   \\    /   O peration     | Website:  https://openfoam.org
    \\  /    A nd           | Version:  8
     \\/     M anipulation  |
\*---------------------------------------------------------------------------*/
FoamFile
{
    version     2.0;
    format      ascii;
    class       volVectorField;
    object      U;
}
// * * * * * * * * * * * * * * * * * * * * * * * * * * * * * * * * * * * * * //

dimensions      [0 1 -1 0 0 0 0];

internalField   nonuniform List<vector> 
21600
(
(-1.44661e-06 1.43519e-06 0)
(-6.99359e-06 2.16515e-06 0)
(-1.27319e-05 1.97047e-06 0)
(-1.61406e-05 1.3038e-06 0)
(-1.5419e-05 4.63136e-07 0)
(-9.77919e-06 -4.39686e-07 0)
(1.08691e-06 -1.34367e-06 0)
(1.72293e-05 -2.21553e-06 0)
(3.85325e-05 -3.03779e-06 0)
(6.47696e-05 -3.80121e-06 0)
(9.5635e-05 -4.49973e-06 0)
(0.000130765 -5.12938e-06 0)
(0.000169753 -5.68661e-06 0)
(0.000212154 -6.16898e-06 0)
(0.0002575 -6.57419e-06 0)
(0.000305301 -6.90111e-06 0)
(0.000355055 -7.14888e-06 0)
(0.000406256 -7.31808e-06 0)
(0.000458399 -7.40959e-06 0)
(0.000510987 -7.4259e-06 0)
(0.000563536 -7.36975e-06 0)
(0.000615586 -7.24551e-06 0)
(0.0006667 -7.05763e-06 0)
(0.000716477 -6.81206e-06 0)
(0.000764548 -6.51458e-06 0)
(0.000810586 -6.17234e-06 0)
(0.000854307 -5.79198e-06 0)
(0.000895472 -5.38133e-06 0)
(0.000933887 -4.94739e-06 0)
(0.000969409 -4.49819e-06 0)
(0.00100194 -4.04062e-06 0)
(0.00103143 -3.58249e-06 0)
(0.00105789 -3.13024e-06 0)
(0.00108134 -2.69114e-06 0)
(0.00110187 -2.27092e-06 0)
(0.00111962 -1.87615e-06 0)
(0.00113475 -1.5117e-06 0)
(0.00114745 -1.18336e-06 0)
(0.00115796 -8.95117e-07 0)
(0.00116654 -6.51991e-07 0)
(0.00117349 -4.57109e-07 0)
(0.00117912 -3.14753e-07 0)
(0.00118377 -2.27219e-07 0)
(0.00118778 -1.98062e-07 0)
(0.00119154 -2.28722e-07 0)
(0.00119541 -3.21959e-07 0)
(0.00119979 -4.78229e-07 0)
(0.00120507 -6.99304e-07 0)
(0.00121162 -9.84395e-07 0)
(0.00121983 -1.33397e-06 0)
(0.00123005 -1.7456e-06 0)
(0.00124264 -2.21804e-06 0)
(0.0012579 -2.7468e-06 0)
(0.00127611 -3.32851e-06 0)
(0.0012975 -3.95629e-06 0)
(0.00132227 -4.62441e-06 0)
(0.00135051 -5.32351e-06 0)
(0.0013823 -6.04564e-06 0)
(0.0014176 -6.77935e-06 0)
(0.00145631 -7.51514e-06 0)
(0.00149824 -8.24036e-06 0)
(0.00154311 -8.9451e-06 0)
(0.00159054 -9.61691e-06 0)
(0.00164009 -1.0247e-05 0)
(0.00169122 -1.08244e-05 0)
(0.00174329 -1.13429e-05 0)
(0.00179562 -1.17942e-05 0)
(0.00184744 -1.21749e-05 0)
(0.00189793 -1.24793e-05 0)
(0.00194619 -1.27063e-05 0)
(0.00199129 -1.2851e-05 0)
(0.00203223 -1.29125e-05 0)
(0.00206793 -1.2884e-05 0)
(0.00209725 -1.27612e-05 0)
(0.00211897 -1.2532e-05 0)
(0.00213173 -1.21859e-05 0)
(0.00213407 -1.17034e-05 0)
(0.00212436 -1.10664e-05 0)
(0.00210081 -1.02465e-05 0)
(0.00206142 -9.21721e-06 0)
(0.002004 -7.94289e-06 0)
(0.00192612 -6.39141e-06 0)
(0.00182515 -4.52153e-06 0)
(0.00169824 -2.2975e-06 0)
(0.0015423 3.26176e-07 0)
(0.0013541 3.38725e-06 0)
(0.00113021 6.93593e-06 0)
(0.000867074 1.10205e-05 0)
(0.000561039 1.56893e-05 0)
(0.000208398 2.09725e-05 0)
(-0.000194582 2.69002e-05 0)
(-0.000651597 3.34958e-05 0)
(-0.00116625 4.07948e-05 0)
(-0.00174198 4.88156e-05 0)
(-0.00238201 5.75728e-05 0)
(-0.00308926 6.70599e-05 0)
(-0.00386629 7.72654e-05 0)
(-0.00471525 8.81542e-05 0)
(-0.00563776 9.96852e-05 0)
(-0.00663493 0.000111792 0)
(-0.00770723 0.000124404 0)
(-0.00885451 0.000137424 0)
(-0.010076 0.000150755 0)
(-0.0113701 0.000164279 0)
(-0.0127347 0.000177878 0)
(-0.0141671 0.000191424 0)
(-0.0156637 0.000204792 0)
(-0.0172207 0.000217854 0)
(-0.0188336 0.000230493 0)
(-0.0204974 0.000242595 0)
(-0.022207 0.000254063 0)
(-0.0239568 0.000264808 0)
(-0.0257411 0.000274762 0)
(-0.0275544 0.000283869 0)
(-0.0293908 0.000292097 0)
(-0.0312448 0.000299424 0)
(-0.033111 0.000305855 0)
(-0.0349841 0.000311402 0)
(-0.0368593 0.000316101 0)
(-0.0387321 0.000319993 0)
(-0.0405984 0.000323141 0)
(-0.0424545 0.000325605 0)
(-0.0442971 0.000327463 0)
(-0.0461233 0.000328788 0)
(-0.0479307 0.000329665 0)
(-0.0497173 0.000330167 0)
(-0.0514814 0.000330377 0)
(-0.0532215 0.00033036 0)
(-0.0549365 0.000330186 0)
(-0.0566255 0.000329905 0)
(-0.0582876 0.000329564 0)
(-0.0599221 0.000329189 0)
(-0.061528 0.000328798 0)
(-0.0631042 0.000328382 0)
(-0.0646496 0.000327918 0)
(-0.0661623 0.000327356 0)
(-0.0676401 0.000326626 0)
(-0.0690802 0.000325628 0)
(-0.0704789 0.000324237 0)
(-0.0718317 0.000322299 0)
(-0.0731329 0.000319632 0)
(-0.0743757 0.000316024 0)
(-0.0755519 0.000311233 0)
(-0.0766519 0.000304988 0)
(-0.0776644 0.00029699 0)
(-0.0785765 0.000286899 0)
(-0.0793732 0.000274329 0)
(-0.080038 0.000258807 0)
(-0.0805523 0.0002398 0)
(-0.0808956 0.000216719 0)
(-0.0810458 0.000188982 0)
(-0.080979 0.000156111 0)
(-0.08067 0.000117594 0)
(-0.0800931 7.29078e-05 0)
(-0.079222 2.15852e-05 0)
(-0.0780306 -3.67129e-05 0)
(-0.0764944 -0.000102146 0)
(-0.0745909 -0.000174617 0)
(-0.072301 -0.000253718 0)
(-0.0696111 -0.000338641 0)
(-0.0665139 -0.000428123 0)
(-0.0630107 -0.000520347 0)
(-0.0591132 -0.000612916 0)
(-0.0548458 -0.000702778 0)
(-0.0502468 -0.000786269 0)
(-0.0453711 -0.000859145 0)
(-0.0402906 -0.00091676 0)
(-0.0350951 -0.000954332 0)
(-0.0298919 -0.000967308 0)
(-0.0248036 -0.000951908 0)
(-0.0199638 -0.000905845 0)
(-0.0155106 -0.000829124 0)
(-0.0115761 -0.000725134 0)
(-0.00827249 -0.000601405 0)
(-0.0056723 -0.000470689 0)
(-0.00378292 -0.000351646 0)
(-0.00251496 -0.000269614 0)
(-0.00165932 -0.000254398 0)
(-0.000955336 -0.000303559 0)
(-0.000249628 -0.000268142 0)
(-2.18546e-06 6.97257e-06 0)
(-1.10261e-05 1.09426e-05 0)
(-1.78134e-05 8.16884e-06 0)
(-1.78169e-05 1.44325e-06 0)
(-7.43976e-06 -7.44917e-06 0)
(1.52031e-05 -1.74146e-05 0)
(5.10217e-05 -2.77746e-05 0)
(0.000100304 -3.81008e-05 0)
(0.000162898 -4.81106e-05 0)
(0.000238333 -5.76099e-05 0)
(0.000325903 -6.64568e-05 0)
(0.000424717 -7.45449e-05 0)
(0.000533748 -8.17906e-05 0)
(0.000651857 -8.81308e-05 0)
(0.000777821 -9.35168e-05 0)
(0.00091036 -9.79167e-05 0)
(0.00104815 -0.000101311 0)
(0.00118985 -0.000103697 0)
(0.00133413 -0.000105081 0)
(0.00147965 -0.000105489 0)
(0.00162514 -0.000104953 0)
(0.00176936 -0.000103522 0)
(0.00191114 -0.000101252 0)
(0.0020494 -9.82127e-05 0)
(0.00218316 -9.44774e-05 0)
(0.00231152 -9.013e-05 0)
(0.00243371 -8.52573e-05 0)
(0.00254907 -7.99521e-05 0)
(0.00265707 -7.43075e-05 0)
(0.0027573 -6.84199e-05 0)
(0.00284948 -6.23833e-05 0)
(0.00293346 -5.62922e-05 0)
(0.00300919 -5.02372e-05 0)
(0.00307676 -4.43069e-05 0)
(0.00313639 -3.85848e-05 0)
(0.00318837 -3.31508e-05 0)
(0.00323314 -2.80789e-05 0)
(0.00327119 -2.34387e-05 0)
(0.00330313 -1.92929e-05 0)
(0.00332965 -1.56998e-05 0)
(0.00335151 -1.27103e-05 0)
(0.00336952 -1.03701e-05 0)
(0.00338456 -8.71778e-06 0)
(0.00339757 -7.78547e-06 0)
(0.00340949 -7.59758e-06 0)
(0.00342132 -8.17104e-06 0)
(0.00343405 -9.51379e-06 0)
(0.00344869 -1.16244e-05 0)
(0.00346621 -1.44909e-05 0)
(0.00348757 -1.80894e-05 0)
(0.00351367 -2.23832e-05 0)
(0.00354535 -2.73215e-05 0)
(0.00358337 -3.28385e-05 0)
(0.00362836 -3.88522e-05 0)
(0.00368084 -4.52645e-05 0)
(0.00374117 -5.19601e-05 0)
(0.00380952 -5.88088e-05 0)
(0.00388588 -6.56646e-05 0)
(0.00397002 -7.23693e-05 0)
(0.00406148 -7.87537e-05 0)
(0.00415955 -8.46421e-05 0)
(0.00426326 -8.98543e-05 0)
(0.00437139 -9.42113e-05 0)
(0.00448245 -9.75371e-05 0)
(0.00459472 -9.96638e-05 0)
(0.0047062 -0.000100433 0)
(0.00481468 -9.9697e-05 0)
(0.00491772 -9.73196e-05 0)
(0.00501265 -9.31729e-05 0)
(0.0050966 -8.7134e-05 0)
(0.00516648 -7.90787e-05 0)
(0.005219 -6.88747e-05 0)
(0.00525059 -5.63727e-05 0)
(0.00525746 -4.13993e-05 0)
(0.00523547 -2.37484e-05 0)
(0.00518018 -3.1767e-06 0)
(0.00508672 2.06034e-05 0)
(0.0049498 4.79205e-05 0)
(0.00476362 7.91434e-05 0)
(0.00452187 0.000114672 0)
(0.00421769 0.000154933 0)
(0.00384365 0.000200361 0)
(0.00339179 0.000251391 0)
(0.00285363 0.000308442 0)
(0.00222023 0.000371908 0)
(0.00148225 0.000442138 0)
(0.000630096 0.000519415 0)
(-0.000346041 0.000603962 0)
(-0.00145602 0.000695922 0)
(-0.00270963 0.000795339 0)
(-0.0041164 0.000902151 0)
(-0.00568546 0.00101619 0)
(-0.0074253 0.00113718 0)
(-0.00934365 0.0012647 0)
(-0.0114472 0.00139819 0)
(-0.0137416 0.00153697 0)
(-0.016231 0.00168019 0)
(-0.018918 0.00182688 0)
(-0.0218036 0.00197597 0)
(-0.024887 0.00212625 0)
(-0.0281656 0.00227644 0)
(-0.0316348 0.00242523 0)
(-0.0352881 0.00257123 0)
(-0.0391173 0.00271311 0)
(-0.0431123 0.00284951 0)
(-0.0472615 0.00297919 0)
(-0.051552 0.00310098 0)
(-0.0559693 0.00321384 0)
(-0.0604984 0.00331686 0)
(-0.0651232 0.00340931 0)
(-0.0698273 0.00349063 0)
(-0.0745941 0.00356046 0)
(-0.0794071 0.00361858 0)
(-0.0842498 0.00366502 0)
(-0.0891066 0.00369994 0)
(-0.0939623 0.00372367 0)
(-0.0988027 0.0037367 0)
(-0.103615 0.00373962 0)
(-0.108386 0.00373314 0)
(-0.113105 0.00371806 0)
(-0.117763 0.00369519 0)
(-0.122351 0.00366543 0)
(-0.126861 0.00362963 0)
(-0.131287 0.00358864 0)
(-0.135624 0.00354327 0)
(-0.139866 0.00349426 0)
(-0.144011 0.00344225 0)
(-0.148054 0.0033878 0)
(-0.151993 0.00333132 0)
(-0.155825 0.00327307 0)
(-0.159547 0.00321317 0)
(-0.163157 0.00315155 0)
(-0.166651 0.00308794 0)
(-0.170024 0.00302188 0)
(-0.173271 0.00295266 0)
(-0.176386 0.00287936 0)
(-0.179362 0.0028008 0)
(-0.182187 0.00271554 0)
(-0.184851 0.00262187 0)
(-0.187339 0.00251781 0)
(-0.189635 0.00240113 0)
(-0.19172 0.00226931 0)
(-0.193571 0.00211961 0)
(-0.195163 0.00194907 0)
(-0.196469 0.00175454 0)
(-0.197455 0.00153265 0)
(-0.198089 0.0012799 0)
(-0.198332 0.000992564 0)
(-0.198144 0.000667117 0)
(-0.197482 0.000300786 0)
(-0.196302 -0.000109042 0)
(-0.194561 -0.000564829 0)
(-0.192212 -0.00106803 0)
(-0.189214 -0.00161924 0)
(-0.185522 -0.00221783 0)
(-0.1811 -0.00286163 0)
(-0.175916 -0.0035466 0)
(-0.169944 -0.00426657 0)
(-0.163168 -0.00501281 0)
(-0.155587 -0.00577384 0)
(-0.147211 -0.00653508 0)
(-0.138069 -0.00727869 0)
(-0.128209 -0.00798347 0)
(-0.117705 -0.00862485 0)
(-0.106652 -0.00917524 0)
(-0.0951772 -0.00960452 0)
(-0.0834354 -0.00988103 0)
(-0.0716138 -0.009973 0)
(-0.0599302 -0.00985058 0)
(-0.0486316 -0.00948912 0)
(-0.0379882 -0.00887318 0)
(-0.028284 -0.00800255 0)
(-0.0198004 -0.00689958 0)
(-0.012791 -0.00561771 0)
(-0.00744327 -0.00425289 0)
(-0.003825 -0.00295429 0)
(-0.00181079 -0.00192391 0)
(-0.00100032 -0.00137218 0)
(-0.000718947 -0.00130826 0)
(-0.000272328 -0.00102727 0)
(-1.99445e-06 1.2708e-05 0)
(-8.34394e-06 1.76918e-05 0)
(-8.89503e-06 8.51726e-06 0)
(1.80068e-06 -9.31301e-06 0)
(2.80128e-05 -3.22657e-05 0)
(7.22306e-05 -5.79923e-05 0)
(0.00013579 -8.49104e-05 0)
(0.0002192 -0.000111936 0)
(0.000322339 -0.000138307 0)
(0.000444606 -0.00016347 0)
(0.000585023 -0.00018701 0)
(0.000742321 -0.000208607 0)
(0.000914998 -0.000228013 0)
(0.00110137 -0.000245036 0)
(0.00129962 -0.000259532 0)
(0.00150783 -0.000271403 0)
(0.00172401 -0.000280591 0)
(0.00194613 -0.000287076 0)
(0.00217217 -0.000290879 0)
(0.00240014 -0.000292055 0)
(0.00262807 -0.000290694 0)
(0.00285409 -0.000286918 0)
(0.00307643 -0.000280879 0)
(0.00329344 -0.000272751 0)
(0.0035036 -0.000262736 0)
(0.00370555 -0.00025105 0)
(0.0038981 -0.000237925 0)
(0.00408022 -0.000223604 0)
(0.00425107 -0.000208339 0)
(0.00441003 -0.000192382 0)
(0.00455661 -0.000175988 0)
(0.00469057 -0.000159407 0)
(0.0048118 -0.000142885 0)
(0.00492042 -0.000126658 0)
(0.0050167 -0.000110955 0)
(0.00510108 -9.59883e-05 0)
(0.00517416 -8.19619e-05 0)
(0.00523669 -6.90622e-05 0)
(0.00528955 -5.74621e-05 0)
(0.00533375 -4.7317e-05 0)
(0.00537042 -3.87667e-05 0)
(0.00540077 -3.19321e-05 0)
(0.0054261 -2.69166e-05 0)
(0.0054478 -2.38027e-05 0)
(0.00546726 -2.26528e-05 0)
(0.00548597 -2.3505e-05 0)
(0.00550537 -2.63737e-05 0)
(0.00552693 -3.12443e-05 0)
(0.00555209 -3.80733e-05 0)
(0.0055822 -4.67823e-05 0)
(0.00561856 -5.7258e-05 0)
(0.00566235 -6.93463e-05 0)
(0.00571457 -8.28524e-05 0)
(0.00577608 -9.75362e-05 0)
(0.00584751 -0.000113114 0)
(0.00592922 -0.000129255 0)
(0.00602131 -0.000145586 0)
(0.00612354 -0.000161693 0)
(0.00623533 -0.000177126 0)
(0.00635573 -0.000191406 0)
(0.00648337 -0.00020403 0)
(0.00661648 -0.000214485 0)
(0.00675286 -0.000222253 0)
(0.00688989 -0.00022682 0)
(0.00702452 -0.000227687 0)
(0.00715327 -0.000224374 0)
(0.00727226 -0.000216422 0)
(0.0073772 -0.000203391 0)
(0.00746342 -0.000184859 0)
(0.00752585 -0.000160407 0)
(0.00755902 -0.000129606 0)
(0.00755704 -9.20026e-05 0)
(0.00751359 -4.70971e-05 0)
(0.00742184 5.67482e-06 0)
(0.00727445 6.69594e-05 0)
(0.00706346 0.000137499 0)
(0.00678026 0.000218131 0)
(0.00641549 0.000309793 0)
(0.00595904 0.000413508 0)
(0.00539997 0.000530362 0)
(0.00472651 0.000661478 0)
(0.00392608 0.000807978 0)
(0.00298533 0.000970949 0)
(0.00189026 0.0011514 0)
(0.000626286 0.0013502 0)
(-0.000821541 0.00156805 0)
(-0.0024684 0.00180548 0)
(-0.00432949 0.00206274 0)
(-0.00641969 0.00233985 0)
(-0.00875335 0.00263652 0)
(-0.011344 0.00295213 0)
(-0.0142039 0.0032857 0)
(-0.017344 0.00363588 0)
(-0.0207734 0.00400091 0)
(-0.0244988 0.00437867 0)
(-0.028525 0.00476664 0)
(-0.0328537 0.00516194 0)
(-0.0374838 0.00556138 0)
(-0.0424114 0.0059615 0)
(-0.0476292 0.00635865 0)
(-0.0531269 0.00674904 0)
(-0.0588912 0.00712885 0)
(-0.0649058 0.00749431 0)
(-0.0711516 0.00784181 0)
(-0.0776074 0.00816794 0)
(-0.0842496 0.00846963 0)
(-0.0910531 0.00874417 0)
(-0.0979917 0.00898932 0)
(-0.105038 0.00920329 0)
(-0.112165 0.00938483 0)
(-0.119344 0.0095332 0)
(-0.126549 0.0096482 0)
(-0.133754 0.00973009 0)
(-0.140934 0.00977963 0)
(-0.148064 0.00979799 0)
(-0.155123 0.00978669 0)
(-0.162091 0.00974757 0)
(-0.168949 0.0096827 0)
(-0.175681 0.00959432 0)
(-0.182272 0.00948475 0)
(-0.188711 0.00935638 0)
(-0.194985 0.00921153 0)
(-0.201086 0.00905245 0)
(-0.207005 0.00888123 0)
(-0.212738 0.00869974 0)
(-0.218277 0.00850963 0)
(-0.223618 0.00831223 0)
(-0.228758 0.00810853 0)
(-0.233691 0.00789915 0)
(-0.238415 0.00768433 0)
(-0.242924 0.00746384 0)
(-0.247213 0.00723701 0)
(-0.251278 0.00700269 0)
(-0.25511 0.00675922 0)
(-0.2587 0.00650441 0)
(-0.262039 0.00623559 0)
(-0.265114 0.00594951 0)
(-0.267908 0.00564242 0)
(-0.270406 0.00531005 0)
(-0.272586 0.00494764 0)
(-0.274425 0.00454996 0)
(-0.275897 0.00411142 0)
(-0.276972 0.00362604 0)
(-0.277617 0.0030875 0)
(-0.277798 0.00248929 0)
(-0.277475 0.00182454 0)
(-0.276608 0.0010869 0)
(-0.275152 0.000270997 0)
(-0.273066 -0.000628133 0)
(-0.270305 -0.00161486 0)
(-0.266825 -0.00269219 0)
(-0.262581 -0.00386204 0)
(-0.25753 -0.00512433 0)
(-0.251634 -0.00647656 0)
(-0.244857 -0.00791342 0)
(-0.237173 -0.00942629 0)
(-0.228559 -0.0110028 0)
(-0.219006 -0.0126261 0)
(-0.208515 -0.0142749 0)
(-0.197102 -0.0159223 0)
(-0.184798 -0.017536 0)
(-0.171655 -0.0190775 0)
(-0.157747 -0.0205024 0)
(-0.143171 -0.0217601 0)
(-0.128054 -0.022794 0)
(-0.112553 -0.0235428 0)
(-0.0968596 -0.0239415 0)
(-0.0812018 -0.0239236 0)
(-0.0658459 -0.0234252 0)
(-0.0510971 -0.0223911 0)
(-0.0372967 -0.0207831 0)
(-0.0248167 -0.0185906 0)
(-0.014044 -0.0158477 0)
(-0.00535641 -0.012651 0)
(0.000915357 -0.00919364 0)
(0.00455921 -0.0058011 0)
(0.00558066 -0.00294581 0)
(0.00438014 -0.00120646 0)
(0.00205067 -0.000916999 0)
(8.82822e-05 -0.00108583 0)
(-1.36824e-06 1.62085e-05 0)
(-1.99722e-06 1.79331e-05 0)
(7.92277e-06 -2.03647e-06 0)
(3.37845e-05 -3.57418e-05 0)
(7.98078e-05 -7.79585e-05 0)
(0.000148667 -0.000125026 0)
(0.000241883 -0.000174331 0)
(0.000360069 -0.000223988 0)
(0.000503105 -0.000272609 0)
(0.000670284 -0.000319149 0)
(0.000860425 -0.000362803 0)
(0.00107196 -0.000402942 0)
(0.00130303 -0.000439075 0)
(0.00155151 -0.000470819 0)
(0.0018151 -0.000497889 0)
(0.00209137 -0.000520084 0)
(0.00237779 -0.000537286 0)
(0.00267177 -0.000549452 0)
(0.00297073 -0.00055661 0)
(0.00327211 -0.00055886 0)
(0.0035734 -0.000556364 0)
(0.00387221 -0.000549343 0)
(0.00416625 -0.000538074 0)
(0.00445339 -0.000522882 0)
(0.00473169 -0.000504133 0)
(0.00499936 -0.000482228 0)
(0.00525487 -0.000457595 0)
(0.00549688 -0.000430685 0)
(0.0057243 -0.00040196 0)
(0.00593625 -0.000371892 0)
(0.00613213 -0.000340952 0)
(0.00631154 -0.000309608 0)
(0.00647435 -0.000278316 0)
(0.00662064 -0.000247521 0)
(0.00675073 -0.000217646 0)
(0.00686513 -0.000189096 0)
(0.00696458 -0.000162249 0)
(0.00705 -0.000137457 0)
(0.00712248 -0.000115043 0)
(0.00718327 -9.53013e-05 0)
(0.00723376 -7.84903e-05 0)
(0.00727548 -6.48364e-05 0)
(0.00731005 -5.45287e-05 0)
(0.00733917 -4.77179e-05 0)
(0.00736462 -4.45121e-05 0)
(0.00738819 -4.49746e-05 0)
(0.0074117 -4.91187e-05 0)
(0.00743695 -5.69036e-05 0)
(0.00746567 -6.82289e-05 0)
(0.00749952 -8.29291e-05 0)
(0.00754003 -0.000100768 0)
(0.00758856 -0.000121433 0)
(0.00764628 -0.000144531 0)
(0.00771407 -0.000169584 0)
(0.00779254 -0.000196029 0)
(0.00788194 -0.000223214 0)
(0.00798214 -0.000250405 0)
(0.00809254 -0.00027679 0)
(0.00821209 -0.000301485 0)
(0.00833921 -0.000323551 0)
(0.00847176 -0.000341999 0)
(0.00860703 -0.000355816 0)
(0.00874173 -0.000363971 0)
(0.00887196 -0.000365438 0)
(0.00899321 -0.000359205 0)
(0.00910038 -0.000344286 0)
(0.00918774 -0.000319724 0)
(0.009249 -0.00028459 0)
(0.00927727 -0.000237972 0)
(0.00926505 -0.000178956 0)
(0.00920424 -0.000106605 0)
(0.00908609 -1.99282e-05 0)
(0.0089012 8.21538e-05 0)
(0.00863942 0.00020084 0)
(0.00828981 0.000337473 0)
(0.00784057 0.000493557 0)
(0.00727898 0.000670765 0)
(0.00659133 0.000870927 0)
(0.00576284 0.001096 0)
(0.00477774 0.00134802 0)
(0.00361919 0.00162906 0)
(0.00226941 0.00194112 0)
(0.000709771 0.00228607 0)
(-0.00107899 0.00266553 0)
(-0.00311664 0.00308085 0)
(-0.00542309 0.00353295 0)
(-0.00801808 0.00402232 0)
(-0.0109208 0.0045489 0)
(-0.0141496 0.005112 0)
(-0.0177213 0.00571029 0)
(-0.0216509 0.0063417 0)
(-0.0259511 0.00700343 0)
(-0.030632 0.00769188 0)
(-0.0357 0.00840272 0)
(-0.0411585 0.00913084 0)
(-0.0470064 0.00987046 0)
(-0.0532388 0.0106152 0)
(-0.0598461 0.0113581 0)
(-0.0668145 0.012092 0)
(-0.0741258 0.0128095 0)
(-0.0817575 0.013503 0)
(-0.0896834 0.0141654 0)
(-0.0978737 0.0147895 0)
(-0.106296 0.015369 0)
(-0.114914 0.0158982 0)
(-0.123692 0.0163721 0)
(-0.132592 0.0167865 0)
(-0.141574 0.0171386 0)
(-0.1506 0.0174261 0)
(-0.159634 0.0176482 0)
(-0.168637 0.0178048 0)
(-0.177575 0.0178969 0)
(-0.186415 0.0179263 0)
(-0.195128 0.0178956 0)
(-0.203684 0.017808 0)
(-0.212059 0.0176672 0)
(-0.220231 0.0174775 0)
(-0.228179 0.0172432 0)
(-0.235888 0.016969 0)
(-0.243342 0.0166593 0)
(-0.250529 0.0163186 0)
(-0.25744 0.0159512 0)
(-0.264065 0.0155609 0)
(-0.2704 0.0151514 0)
(-0.276438 0.0147256 0)
(-0.282175 0.0142861 0)
(-0.287606 0.0138348 0)
(-0.29273 0.0133728 0)
(-0.297541 0.0129009 0)
(-0.302036 0.0124188 0)
(-0.306211 0.0119256 0)
(-0.310059 0.0114196 0)
(-0.313574 0.0108983 0)
(-0.316747 0.0103585 0)
(-0.319569 0.00979614 0)
(-0.322027 0.00920627 0)
(-0.324106 0.00858332 0)
(-0.325789 0.00792094 0)
(-0.327058 0.00721212 0)
(-0.32789 0.00644925 0)
(-0.328261 0.00562419 0)
(-0.328144 0.00472828 0)
(-0.327508 0.00375255 0)
(-0.326324 0.00268757 0)
(-0.324555 0.00152451 0)
(-0.322166 0.000255489 0)
(-0.319124 -0.00112667 0)
(-0.315392 -0.0026287 0)
(-0.310933 -0.00425602 0)
(-0.305709 -0.00601307 0)
(-0.299683 -0.00790203 0)
(-0.292821 -0.00992238 0)
(-0.285093 -0.0120705 0)
(-0.276471 -0.0143392 0)
(-0.266932 -0.016717 0)
(-0.256463 -0.0191875 0)
(-0.245054 -0.021729 0)
(-0.232708 -0.0243134 0)
(-0.219439 -0.026906 0)
(-0.205273 -0.0294646 0)
(-0.190254 -0.0319389 0)
(-0.174443 -0.0342698 0)
(-0.157921 -0.0363894 0)
(-0.140796 -0.0382204 0)
(-0.123201 -0.0396762 0)
(-0.105304 -0.0406615 0)
(-0.0873065 -0.0410735 0)
(-0.0694528 -0.0408054 0)
(-0.0520332 -0.0397508 0)
(-0.0353893 -0.0378125 0)
(-0.0199157 -0.0349127 0)
(-0.0060598 -0.0310014 0)
(0.00567196 -0.0260919 0)
(0.0147618 -0.0203049 0)
(0.0207082 -0.0139042 0)
(0.0230446 -0.00737339 0)
(0.0214641 -0.00150784 0)
(0.0161184 0.00249177 0)
(0.00849926 0.00332817 0)
(0.00107135 0.00121364 0)
(-6.06863e-07 1.58584e-05 0)
(6.11244e-06 8.52396e-06 0)
(2.89241e-05 -2.71333e-05 0)
(7.26376e-05 -8.12814e-05 0)
(0.000140955 -0.00014726 0)
(0.000236415 -0.000220199 0)
(0.000360505 -0.000296468 0)
(0.000513803 -0.000373338 0)
(0.000696121 -0.000448722 0)
(0.000906627 -0.000521005 0)
(0.00114395 -0.000588915 0)
(0.00140628 -0.000651443 0)
(0.00169144 -0.000707792 0)
(0.00199697 -0.00075734 0)
(0.00232016 -0.000799619 0)
(0.00265815 -0.0008343 0)
(0.00300798 -0.000861184 0)
(0.0033666 -0.000880192 0)
(0.00373096 -0.000891364 0)
(0.00409803 -0.000894844 0)
(0.00446486 -0.00089088 0)
(0.00482862 -0.000879813 0)
(0.0051866 -0.000862069 0)
(0.00553627 -0.000838149 0)
(0.00587531 -0.00080862 0)
(0.00620163 -0.000774102 0)
(0.00651336 -0.00073526 0)
(0.00680892 -0.000692792 0)
(0.00708696 -0.000647416 0)
(0.00734645 -0.000599866 0)
(0.00758661 -0.000550876 0)
(0.00780696 -0.000501175 0)
(0.00800727 -0.000451477 0)
(0.00818761 -0.000402475 0)
(0.00834831 -0.000354834 0)
(0.00848992 -0.000309186 0)
(0.00861327 -0.000266126 0)
(0.00871939 -0.000226207 0)
(0.00880951 -0.000189934 0)
(0.00888506 -0.000157767 0)
(0.00894764 -0.000130111 0)
(0.00899897 -0.000107316 0)
(0.00904092 -8.96748e-05 0)
(0.00907543 -7.74137e-05 0)
(0.00910451 -7.06919e-05 0)
(0.00913022 -6.95936e-05 0)
(0.0091546 -7.4122e-05 0)
(0.00917967 -8.41908e-05 0)
(0.00920736 -9.96169e-05 0)
(0.0092395 -0.000120111 0)
(0.00927773 -0.000145269 0)
(0.00932349 -0.000174563 0)
(0.00937794 -0.000207335 0)
(0.00944193 -0.000242791 0)
(0.00951589 -0.000279997 0)
(0.00959985 -0.000317879 0)
(0.0096933 -0.000355231 0)
(0.0097952 -0.000390715 0)
(0.00990386 -0.000422881 0)
(0.010017 -0.00045018 0)
(0.0101315 -0.000470986 0)
(0.0102437 -0.000483616 0)
(0.010349 -0.000486358 0)
(0.0104421 -0.000477491 0)
(0.0105169 -0.000455305 0)
(0.0105664 -0.000418116 0)
(0.0105831 -0.000364271 0)
(0.0105583 -0.000292143 0)
(0.0104827 -0.00020012 0)
(0.0103462 -8.65755e-05 0)
(0.0101378 5.01649e-05 0)
(0.00984566 0.000211872 0)
(0.00945692 0.00040045 0)
(0.00895781 0.000617985 0)
(0.00833352 0.000866777 0)
(0.00756808 0.00114936 0)
(0.00664438 0.0014685 0)
(0.00554405 0.00182716 0)
(0.00424752 0.00222846 0)
(0.002734 0.00267555 0)
(0.000981614 0.00317157 0)
(-0.00103246 0.00371941 0)
(-0.00333184 0.00432167 0)
(-0.00594049 0.00498047 0)
(-0.0088825 0.0056973 0)
(-0.0121815 0.00647289 0)
(-0.0158603 0.00730705 0)
(-0.0199402 0.00819859 0)
(-0.0244405 0.00914517 0)
(-0.0293777 0.0101433 0)
(-0.0347652 0.011188 0)
(-0.0406121 0.0122734 0)
(-0.0469235 0.013392 0)
(-0.0536991 0.0145353 0)
(-0.0609335 0.0156934 0)
(-0.0686153 0.0168557 0)
(-0.0767278 0.0180107 0)
(-0.0852481 0.0191464 0)
(-0.094148 0.0202505 0)
(-0.103394 0.0213108 0)
(-0.112948 0.0223155 0)
(-0.122768 0.0232535 0)
(-0.132809 0.0241144 0)
(-0.143022 0.0248893 0)
(-0.15336 0.0255707 0)
(-0.16377 0.0261524 0)
(-0.174205 0.0266302 0)
(-0.184616 0.0270015 0)
(-0.194954 0.0272653 0)
(-0.205177 0.0274224 0)
(-0.215243 0.0274749 0)
(-0.225113 0.0274264 0)
(-0.234752 0.0272816 0)
(-0.244129 0.0270464 0)
(-0.253218 0.0267271 0)
(-0.261993 0.0263307 0)
(-0.270436 0.0258647 0)
(-0.27853 0.0253365 0)
(-0.286261 0.0247535 0)
(-0.293619 0.0241229 0)
(-0.300595 0.0234514 0)
(-0.307183 0.0227454 0)
(-0.313378 0.0220105 0)
(-0.319179 0.0212514 0)
(-0.324583 0.0204724 0)
(-0.329588 0.0196765 0)
(-0.334195 0.0188659 0)
(-0.338401 0.0180418 0)
(-0.342207 0.0172045 0)
(-0.345609 0.0163531 0)
(-0.348605 0.0154857 0)
(-0.35119 0.0145993 0)
(-0.353361 0.01369 0)
(-0.355109 0.0127529 0)
(-0.356425 0.0117818 0)
(-0.3573 0.0107699 0)
(-0.357721 0.00970936 0)
(-0.357672 0.00859162 0)
(-0.357137 0.00740733 0)
(-0.356098 0.00614651 0)
(-0.354533 0.00479865 0)
(-0.35242 0.00335271 0)
(-0.349734 0.00179815 0)
(-0.346449 0.000124962 0)
(-0.342542 -0.00167595 0)
(-0.337987 -0.00361373 0)
(-0.332754 -0.00569662 0)
(-0.326812 -0.00793237 0)
(-0.320133 -0.0103265 0)
(-0.312688 -0.0128819 0)
(-0.304451 -0.0155988 0)
(-0.295395 -0.0184741 0)
(-0.285498 -0.0215006 0)
(-0.274741 -0.0246666 0)
(-0.263109 -0.0279549 0)
(-0.250592 -0.0313425 0)
(-0.237186 -0.0347993 0)
(-0.222899 -0.0382874 0)
(-0.207743 -0.0417605 0)
(-0.191747 -0.0451624 0)
(-0.174951 -0.0484266 0)
(-0.157414 -0.0514751 0)
(-0.139212 -0.0542175 0)
(-0.120447 -0.0565501 0)
(-0.101248 -0.0583555 0)
(-0.0817788 -0.0595031 0)
(-0.0622408 -0.0598493 0)
(-0.0428852 -0.0592425 0)
(-0.0240206 -0.0575252 0)
(-0.00602161 -0.0545311 0)
(0.0106423 -0.0501076 0)
(0.0254564 -0.0441507 0)
(0.0378375 -0.0366205 0)
(0.0470641 -0.027586 0)
(0.052336 -0.0173027 0)
(0.052808 -0.00633644 0)
(0.0476303 0.00421746 0)
(0.0363489 0.0123359 0)
(0.0205228 0.0147753 0)
(0.00321168 0.00860009 0)
(1.75328e-07 1.10935e-05 0)
(1.48994e-05 -1.19407e-05 0)
(5.17621e-05 -6.86133e-05 0)
(0.000114742 -0.000147833 0)
(0.000206718 -0.000241824 0)
(0.000329862 -0.000344678 0)
(0.000485447 -0.000451829 0)
(0.000673884 -0.00055972 0)
(0.000894833 -0.000665552 0)
(0.00114729 -0.000767099 0)
(0.00142969 -0.000862573 0)
(0.00173999 -0.000950541 0)
(0.00207572 -0.00102986 0)
(0.00243413 -0.00109962 0)
(0.00281217 -0.00115914 0)
(0.00320662 -0.00120795 0)
(0.00361415 -0.00124576 0)
(0.00403131 -0.00127243 0)
(0.00445469 -0.00128801 0)
(0.00488086 -0.00129271 0)
(0.00530649 -0.00128686 0)
(0.00572839 -0.00127095 0)
(0.0061435 -0.00124556 0)
(0.00654896 -0.0012114 0)
(0.00694216 -0.00116925 0)
(0.0073207 -0.00112 0)
(0.00768248 -0.00106456 0)
(0.00802568 -0.00100392 0)
(0.00834878 -0.000939084 0)
(0.00865056 -0.000871088 0)
(0.00893011 -0.000800959 0)
(0.00918686 -0.000729725 0)
(0.00942051 -0.000658391 0)
(0.00963109 -0.000587934 0)
(0.0098189 -0.000519293 0)
(0.00998455 -0.000453361 0)
(0.0101289 -0.000390977 0)
(0.010253 -0.000332921 0)
(0.0103583 -0.00027991 0)
(0.0104462 -0.000232589 0)
(0.0105185 -0.000191528 0)
(0.0105771 -0.000157216 0)
(0.0106239 -0.000130056 0)
(0.0106612 -0.000110358 0)
(0.010691 -9.83297e-05 0)
(0.0107155 -9.40698e-05 0)
(0.0107371 -9.75568e-05 0)
(0.0107577 -0.000108638 0)
(0.0107794 -0.000127019 0)
(0.0108042 -0.000152247 0)
(0.0108336 -0.000183702 0)
(0.0108691 -0.000220586 0)
(0.0109117 -0.000261906 0)
(0.0109622 -0.000306473 0)
(0.0110206 -0.000352894 0)
(0.0110867 -0.000399569 0)
(0.0111594 -0.000444704 0)
(0.0112372 -0.000486314 0)
(0.0113176 -0.000522241 0)
(0.0113975 -0.000550181 0)
(0.0114728 -0.000567707 0)
(0.0115386 -0.0005723 0)
(0.0115888 -0.000561386 0)
(0.0116167 -0.000532359 0)
(0.0116144 -0.000482613 0)
(0.011573 -0.00040956 0)
(0.0114825 -0.000310636 0)
(0.0113322 -0.000183295 0)
(0.0111099 -2.49964e-05 0)
(0.0108026 0.000166841 0)
(0.0103963 0.000394881 0)
(0.00987562 0.000661918 0)
(0.00922412 0.000970943 0)
(0.00842411 0.00132519 0)
(0.00745661 0.00172818 0)
(0.00630125 0.00218371 0)
(0.00493628 0.00269587 0)
(0.0033386 0.00326894 0)
(0.00148373 0.00390732 0)
(-0.000654 0.00461533 0)
(-0.00310132 0.0053971 0)
(-0.00588565 0.00625632 0)
(-0.00903478 0.007196 0)
(-0.0125764 0.00821829 0)
(-0.0165374 0.00932419 0)
(-0.0209434 0.0105133 0)
(-0.025818 0.0117839 0)
(-0.0311818 0.0131322 0)
(-0.0370518 0.0145529 0)
(-0.0434405 0.0160385 0)
(-0.0503553 0.0175799 0)
(-0.0577975 0.0191656 0)
(-0.0657621 0.0207828 0)
(-0.074237 0.0224165 0)
(-0.0832029 0.0240507 0)
(-0.0926335 0.025668 0)
(-0.102495 0.0272507 0)
(-0.112748 0.0287804 0)
(-0.123346 0.0302392 0)
(-0.134237 0.0316098 0)
(-0.145367 0.0328762 0)
(-0.156676 0.0340238 0)
(-0.168104 0.03504 0)
(-0.17959 0.0359146 0)
(-0.191073 0.0366397 0)
(-0.202494 0.03721 0)
(-0.213795 0.0376226 0)
(-0.224922 0.0378775 0)
(-0.235826 0.0379766 0)
(-0.246461 0.0379244 0)
(-0.256785 0.0377269 0)
(-0.266763 0.0373919 0)
(-0.276364 0.0369286 0)
(-0.285561 0.036347 0)
(-0.294333 0.0356576 0)
(-0.302662 0.0348717 0)
(-0.310534 0.0340002 0)
(-0.317941 0.0330541 0)
(-0.324875 0.0320439 0)
(-0.331334 0.0309794 0)
(-0.337314 0.0298696 0)
(-0.342817 0.0287227 0)
(-0.347845 0.0275458 0)
(-0.352401 0.0263448 0)
(-0.356487 0.0251243 0)
(-0.360108 0.0238879 0)
(-0.363268 0.0226378 0)
(-0.36597 0.0213747 0)
(-0.368216 0.0200984 0)
(-0.370009 0.018807 0)
(-0.37135 0.0174976 0)
(-0.372237 0.0161659 0)
(-0.372669 0.0148065 0)
(-0.372643 0.0134127 0)
(-0.372154 0.0119769 0)
(-0.371194 0.0104903 0)
(-0.369756 0.00894333 0)
(-0.367829 0.0073255 0)
(-0.365402 0.00562558 0)
(-0.36246 0.00383173 0)
(-0.358989 0.00193216 0)
(-0.354971 -8.47248e-05 0)
(-0.350393 -0.00222982 0)
(-0.345236 -0.0045146 0)
(-0.339477 -0.00695011 0)
(-0.333094 -0.00954751 0)
(-0.326064 -0.0123159 0)
(-0.318363 -0.0152626 0)
(-0.309967 -0.0183924 0)
(-0.300853 -0.0217077 0)
(-0.290998 -0.0252073 0)
(-0.280378 -0.0288865 0)
(-0.268974 -0.0327355 0)
(-0.256766 -0.0367395 0)
(-0.243737 -0.0408772 0)
(-0.229877 -0.0451203 0)
(-0.215177 -0.0494321 0)
(-0.199638 -0.0537668 0)
(-0.183266 -0.058068 0)
(-0.166079 -0.0622675 0)
(-0.148108 -0.0662839 0)
(-0.129398 -0.0700216 0)
(-0.110013 -0.0733682 0)
(-0.0900397 -0.0761939 0)
(-0.0695946 -0.07835 0)
(-0.0488282 -0.0796708 0)
(-0.0279384 -0.0799703 0)
(-0.00717759 -0.0790327 0)
(0.0131108 -0.0766169 0)
(0.0325546 -0.0724905 0)
(0.0507146 -0.0664252 0)
(0.0669775 -0.0582009 0)
(0.0805788 -0.0476425 0)
(0.0905691 -0.0346736 0)
(0.09579 -0.0194173 0)
(0.0948671 -0.00236406 0)
(0.0861332 0.0152642 0)
(0.0679555 0.0306309 0)
(0.0411234 0.0374766 0)
(0.00757737 0.0254827 0)
(9.17417e-07 1.81129e-06 0)
(2.37184e-05 -4.39342e-05 0)
(7.49998e-05 -0.000127244 0)
(0.000157776 -0.000236274 0)
(0.000273961 -0.000362446 0)
(0.000425206 -0.000499006 0)
(0.00061243 -0.000640561 0)
(0.000835769 -0.000782783 0)
(0.00109464 -0.000922176 0)
(0.00138782 -0.0010559 0)
(0.00171352 -0.00118162 0)
(0.00206943 -0.00129747 0)
(0.00245285 -0.00140191 0)
(0.0028607 -0.00149374 0)
(0.00328968 -0.00157205 0)
(0.00373622 -0.00163618 0)
(0.00419667 -0.00168575 0)
(0.00466726 -0.00172058 0)
(0.00514424 -0.00174072 0)
(0.00562386 -0.00174644 0)
(0.00610248 -0.00173817 0)
(0.00657658 -0.00171654 0)
(0.00704284 -0.00168234 0)
(0.00749812 -0.00163647 0)
(0.00793954 -0.00157998 0)
(0.00836449 -0.00151402 0)
(0.00877064 -0.0014398 0)